<?xml version="1.0" encoding="UTF-8"?>

<!-- generated on 2025-11-19 01:02:39 by Eclipse SUMO sumo Version 1.24.0
<sumoConfiguration xmlns:xsi="http://www.w3.org/2001/XMLSchema-instance" xsi:noNamespaceSchemaLocation="http://sumo.dlr.de/xsd/sumoConfiguration.xsd">

    <input>
        <net-file value="./sumoData/TestLightsSogamosoNet.net.xml"/>
        <route-files value="./sumoData/osm.passenger.trips.xml"/>
        <additional-files value="./sumoData/output.add.xml"/>
    </input>

    <output>
        <tripinfo-output value="./sumoData/tripinfos.xml"/>
        <statistic-output value="./sumoData/stats.xml"/>
    </output>

    <processing>
        <ignore-route-errors value="true"/>
        <waiting-time-memory value="1000"/>
        <tls.actuated.jam-threshold value="30"/>
    </processing>

    <routing>
        <device.rerouting.adaptation-steps value="18"/>
        <device.rerouting.adaptation-interval value="10"/>
    </routing>

    <report>
        <verbose value="true"/>
        <duration-log.statistics value="true"/>
        <no-step-log value="true"/>
    </report>

    <traci_server>
        <remote-port value="43173"/>
    </traci_server>

    <gui_only>
        <gui-settings-file value="./sumoData/osm.view.xml"/>
    </gui_only>

</sumoConfiguration>
-->

<tripinfos xmlns:xsi="http://www.w3.org/2001/XMLSchema-instance" xsi:noNamespaceSchemaLocation="http://sumo.dlr.de/xsd/tripinfo_file.xsd">
    <tripinfo id="veh13" depart="13.00" departLane="-389383179_0" departPos="5.10" departSpeed="0.00" departDelay="0.00" arrival="67.00" arrivalLane="-496915272#0_0" arrivalPos="0.20" arrivalSpeed="14.74" duration="54.00" routeLength="569.21" waitingTime="0.00" waitingCount="0" stopTime="0.00" timeLoss="15.92" rerouteNo="1" devices="tripinfo_veh13 routing_veh13" vType="veh_passenger" speedFactor="1.12" vaporized=""/>
    <tripinfo id="veh73" depart="73.00" departLane="87392450#0_0" departPos="5.10" departSpeed="0.00" departDelay="0.00" arrival="94.00" arrivalLane="406320070#1_1" arrivalPos="89.58" arrivalSpeed="11.27" duration="21.00" routeLength="184.06" waitingTime="0.00" waitingCount="0" stopTime="0.00" timeLoss="5.35" rerouteNo="1" devices="tripinfo_veh73 routing_veh73" vType="veh_passenger" speedFactor="1.06" vaporized=""/>
    <tripinfo id="veh68" depart="68.00" departLane="-834243064_0" departPos="5.10" departSpeed="0.00" departDelay="0.00" arrival="101.00" arrivalLane="-834243062_0" arrivalPos="34.33" arrivalSpeed="12.05" duration="33.00" routeLength="330.14" waitingTime="0.00" waitingCount="0" stopTime="0.00" timeLoss="7.99" rerouteNo="1" devices="tripinfo_veh68 routing_veh68" vType="veh_passenger" speedFactor="1.04" vaporized=""/>
    <tripinfo id="veh18" depart="18.00" departLane="87390413#0_0" departPos="5.10" departSpeed="0.00" departDelay="0.00" arrival="117.00" arrivalLane="486194421#0_0" arrivalPos="14.48" arrivalSpeed="11.47" duration="99.00" routeLength="999.37" waitingTime="0.00" waitingCount="0" stopTime="0.00" timeLoss="25.17" rerouteNo="1" devices="tripinfo_veh18 routing_veh18" vType="veh_passenger" speedFactor="0.94" vaporized=""/>
    <tripinfo id="veh8" depart="8.00" departLane="-833977499#1_0" departPos="5.10" departSpeed="0.00" departDelay="0.00" arrival="119.00" arrivalLane="538102160#0_0" arrivalPos="111.21" arrivalSpeed="11.75" duration="111.00" routeLength="1235.84" waitingTime="0.00" waitingCount="0" stopTime="0.00" timeLoss="13.49" rerouteNo="1" devices="tripinfo_veh8 routing_veh8" vType="veh_passenger" speedFactor="0.94" vaporized=""/>
    <tripinfo id="veh38" depart="38.00" departLane="-496915278#0_0" departPos="5.10" departSpeed="0.00" departDelay="0.00" arrival="134.00" arrivalLane="627249329#3_0" arrivalPos="50.83" arrivalSpeed="14.28" duration="96.00" routeLength="995.04" waitingTime="12.00" waitingCount="1" stopTime="0.00" timeLoss="36.51" rerouteNo="1" devices="tripinfo_veh38 routing_veh38" vType="veh_passenger" speedFactor="1.10" vaporized=""/>
    <tripinfo id="veh45" depart="45.00" departLane="-87393957#2_0" departPos="5.10" departSpeed="0.00" departDelay="0.00" arrival="134.00" arrivalLane="87393259#0_0" arrivalPos="97.06" arrivalSpeed="14.16" duration="89.00" routeLength="1183.39" waitingTime="0.00" waitingCount="0" stopTime="0.00" timeLoss="25.27" rerouteNo="1" devices="tripinfo_veh45 routing_veh45" vType="veh_passenger" speedFactor="1.09" vaporized=""/>
    <tripinfo id="veh50" depart="50.00" departLane="486194436#0_0" departPos="5.10" departSpeed="0.00" departDelay="0.00" arrival="135.00" arrivalLane="-833600664_0" arrivalPos="20.31" arrivalSpeed="9.44" duration="85.00" routeLength="1016.35" waitingTime="0.00" waitingCount="0" stopTime="0.00" timeLoss="15.37" rerouteNo="1" devices="tripinfo_veh50 routing_veh50" vType="veh_passenger" speedFactor="0.85" vaporized=""/>
    <tripinfo id="veh55" depart="55.00" departLane="87390853#0_0" departPos="5.10" departSpeed="0.00" departDelay="0.00" arrival="147.00" arrivalLane="87390118#27_0" arrivalPos="66.45" arrivalSpeed="12.84" duration="92.00" routeLength="1316.27" waitingTime="0.00" waitingCount="0" stopTime="0.00" timeLoss="20.50" rerouteNo="1" devices="tripinfo_veh55 routing_veh55" vType="veh_passenger" speedFactor="1.00" vaporized=""/>
    <tripinfo id="veh40" depart="40.00" departLane="936574255_0" departPos="5.10" departSpeed="0.00" departDelay="0.00" arrival="150.00" arrivalLane="113884917_0" arrivalPos="77.12" arrivalSpeed="13.72" duration="110.00" routeLength="1472.18" waitingTime="13.00" waitingCount="1" stopTime="0.00" timeLoss="41.20" rerouteNo="1" devices="tripinfo_veh40 routing_veh40" vType="veh_passenger" speedFactor="1.03" vaporized=""/>
    <tripinfo id="veh19" depart="19.00" departLane="833940247#0_0" departPos="5.10" departSpeed="0.00" departDelay="0.00" arrival="151.00" arrivalLane="-1097531050_0" arrivalPos="76.31" arrivalSpeed="15.82" duration="132.00" routeLength="1733.71" waitingTime="0.00" waitingCount="0" stopTime="0.00" timeLoss="20.35" rerouteNo="1" devices="tripinfo_veh19 routing_veh19" vType="veh_passenger" speedFactor="1.16" vaporized=""/>
    <tripinfo id="veh89" depart="89.00" departLane="87390112#4_0" departPos="5.10" departSpeed="0.00" departDelay="0.00" arrival="152.00" arrivalLane="-833637181_0" arrivalPos="37.83" arrivalSpeed="13.80" duration="63.00" routeLength="784.24" waitingTime="0.00" waitingCount="0" stopTime="0.00" timeLoss="13.85" rerouteNo="1" devices="tripinfo_veh89 routing_veh89" vType="veh_passenger" speedFactor="1.02" vaporized=""/>
    <tripinfo id="veh84" depart="84.00" departLane="-834277382#2_0" departPos="5.10" departSpeed="0.00" departDelay="0.00" arrival="153.00" arrivalLane="87392379_0" arrivalPos="155.70" arrivalSpeed="14.69" duration="69.00" routeLength="798.13" waitingTime="0.00" waitingCount="0" stopTime="0.00" timeLoss="18.39" rerouteNo="1" devices="tripinfo_veh84 routing_veh84" vType="veh_passenger" speedFactor="1.15" vaporized=""/>
    <tripinfo id="veh32" depart="32.00" departLane="87390797#7_0" departPos="5.10" departSpeed="0.00" departDelay="0.00" arrival="154.00" arrivalLane="-87390399#2_0" arrivalPos="87.82" arrivalSpeed="13.79" duration="122.00" routeLength="1825.65" waitingTime="0.00" waitingCount="0" stopTime="0.00" timeLoss="24.34" rerouteNo="1" devices="tripinfo_veh32 routing_veh32" vType="veh_passenger" speedFactor="1.01" vaporized=""/>
    <tripinfo id="veh4" depart="4.00" departLane="-87392777#2_0" departPos="5.10" departSpeed="0.00" departDelay="0.00" arrival="172.00" arrivalLane="-1089568180#1_0" arrivalPos="14.62" arrivalSpeed="10.08" duration="168.00" routeLength="1982.42" waitingTime="12.00" waitingCount="1" stopTime="0.00" timeLoss="48.11" rerouteNo="1" devices="tripinfo_veh4 routing_veh4" vType="veh_passenger" speedFactor="1.03" vaporized=""/>
    <tripinfo id="veh95" depart="95.00" departLane="1105898949#1_0" departPos="5.10" departSpeed="0.00" departDelay="0.00" arrival="173.00" arrivalLane="834249519_0" arrivalPos="70.66" arrivalSpeed="13.67" duration="78.00" routeLength="834.29" waitingTime="12.00" waitingCount="1" stopTime="0.00" timeLoss="31.20" rerouteNo="1" devices="tripinfo_veh95 routing_veh95" vType="veh_passenger" speedFactor="1.06" vaporized=""/>
    <tripinfo id="veh46" depart="46.00" departLane="87390797#2_0" departPos="5.10" departSpeed="0.00" departDelay="0.00" arrival="174.00" arrivalLane="-834310565_0" arrivalPos="38.73" arrivalSpeed="13.26" duration="128.00" routeLength="1538.94" waitingTime="0.00" waitingCount="0" stopTime="0.00" timeLoss="26.75" rerouteNo="1" devices="tripinfo_veh46 routing_veh46" vType="veh_passenger" speedFactor="1.00" vaporized=""/>
    <tripinfo id="veh133" depart="133.00" departLane="87391468#0_0" departPos="5.10" departSpeed="0.00" departDelay="0.00" arrival="176.00" arrivalLane="1174578656#6_0" arrivalPos="4.41" arrivalSpeed="13.37" duration="43.00" routeLength="418.04" waitingTime="0.00" waitingCount="0" stopTime="0.00" timeLoss="10.63" rerouteNo="1" devices="tripinfo_veh133 routing_veh133" vType="veh_passenger" speedFactor="1.04" vaporized=""/>
    <tripinfo id="veh31" depart="31.00" departLane="-833950525#0_0" departPos="5.10" departSpeed="0.00" departDelay="0.00" arrival="177.00" arrivalLane="87392915#0_0" arrivalPos="94.45" arrivalSpeed="14.93" duration="146.00" routeLength="2316.28" waitingTime="0.00" waitingCount="0" stopTime="0.00" timeLoss="48.45" rerouteNo="1" devices="tripinfo_veh31 routing_veh31" vType="veh_passenger" speedFactor="1.15" vaporized=""/>
    <tripinfo id="veh6" depart="6.00" departLane="-1087114241#1_0" departPos="5.10" departSpeed="0.00" departDelay="0.00" arrival="182.00" arrivalLane="-833950517_0" arrivalPos="34.27" arrivalSpeed="12.78" duration="176.00" routeLength="2413.74" waitingTime="0.00" waitingCount="0" stopTime="0.00" timeLoss="45.36" rerouteNo="1" devices="tripinfo_veh6 routing_veh6" vType="veh_passenger" speedFactor="1.05" vaporized=""/>
    <tripinfo id="veh100" depart="100.00" departLane="-629065173_0" departPos="5.10" departSpeed="0.00" departDelay="0.00" arrival="182.00" arrivalLane="87393470#2_0" arrivalPos="34.00" arrivalSpeed="14.32" duration="82.00" routeLength="1176.38" waitingTime="0.00" waitingCount="0" stopTime="0.00" timeLoss="17.43" rerouteNo="1" devices="tripinfo_veh100 routing_veh100" vType="veh_passenger" speedFactor="1.06" vaporized=""/>
    <tripinfo id="veh114" depart="114.00" departLane="-1169372534#1_0" departPos="5.10" departSpeed="0.00" departDelay="0.00" arrival="187.00" arrivalLane="-834003923_0" arrivalPos="43.39" arrivalSpeed="14.06" duration="73.00" routeLength="757.62" waitingTime="0.00" waitingCount="0" stopTime="0.00" timeLoss="19.28" rerouteNo="1" devices="tripinfo_veh114 routing_veh114" vType="veh_passenger" speedFactor="1.10" vaporized=""/>
    <tripinfo id="veh37" depart="37.00" departLane="-326169664_0" departPos="5.10" departSpeed="0.00" departDelay="0.00" arrival="192.00" arrivalLane="-1097531076_0" arrivalPos="37.73" arrivalSpeed="15.43" duration="155.00" routeLength="2349.91" waitingTime="0.00" waitingCount="0" stopTime="0.00" timeLoss="44.62" rerouteNo="1" devices="tripinfo_veh37 routing_veh37" vType="veh_passenger" speedFactor="1.18" vaporized=""/>
    <tripinfo id="veh94" depart="94.00" departLane="87393172#1_0" departPos="5.10" departSpeed="0.00" departDelay="0.00" arrival="192.00" arrivalLane="936198012#1_1" arrivalPos="29.19" arrivalSpeed="8.74" duration="98.00" routeLength="1096.18" waitingTime="9.00" waitingCount="1" stopTime="0.00" timeLoss="33.81" rerouteNo="1" devices="tripinfo_veh94 routing_veh94" vType="veh_passenger" speedFactor="1.09" vaporized=""/>
    <tripinfo id="veh61" depart="61.00" departLane="-87392788#4_0" departPos="5.10" departSpeed="0.00" departDelay="0.00" arrival="201.00" arrivalLane="-833991622_0" arrivalPos="44.82" arrivalSpeed="13.66" duration="140.00" routeLength="2064.01" waitingTime="0.00" waitingCount="0" stopTime="0.00" timeLoss="21.23" rerouteNo="1" devices="tripinfo_veh61 routing_veh61" vType="veh_passenger" speedFactor="1.12" vaporized=""/>
    <tripinfo id="veh65" depart="65.00" departLane="-87393294#2_0" departPos="5.10" departSpeed="0.00" departDelay="0.00" arrival="204.00" arrivalLane="1105898931_0" arrivalPos="9.19" arrivalSpeed="11.59" duration="139.00" routeLength="1431.12" waitingTime="23.00" waitingCount="2" stopTime="0.00" timeLoss="58.58" rerouteNo="1" devices="tripinfo_veh65 routing_veh65" vType="veh_passenger" speedFactor="0.88" vaporized=""/>
    <tripinfo id="veh14" depart="14.00" departLane="87390070#2_0" departPos="5.10" departSpeed="0.00" departDelay="0.00" arrival="206.00" arrivalLane="541727247#0_0" arrivalPos="54.71" arrivalSpeed="12.73" duration="192.00" routeLength="2673.75" waitingTime="0.00" waitingCount="0" stopTime="0.00" timeLoss="43.32" rerouteNo="1" devices="tripinfo_veh14 routing_veh14" vType="veh_passenger" speedFactor="0.99" vaporized=""/>
    <tripinfo id="veh69" depart="69.00" departLane="-1169188379#0_0" departPos="5.10" departSpeed="0.00" departDelay="0.00" arrival="209.00" arrivalLane="627276950#0_0" arrivalPos="60.49" arrivalSpeed="21.51" duration="140.00" routeLength="1968.64" waitingTime="0.00" waitingCount="0" stopTime="0.00" timeLoss="41.51" rerouteNo="1" devices="tripinfo_veh69 routing_veh69" vType="veh_passenger" speedFactor="1.02" vaporized=""/>
    <tripinfo id="veh30" depart="30.00" departLane="-87389648#1_0" departPos="5.10" departSpeed="0.00" departDelay="0.00" arrival="217.00" arrivalLane="-834321243_0" arrivalPos="63.21" arrivalSpeed="15.76" duration="187.00" routeLength="4101.07" waitingTime="0.00" waitingCount="0" stopTime="0.00" timeLoss="27.65" rerouteNo="1" devices="tripinfo_veh30 routing_veh30" vType="veh_passenger" speedFactor="1.18" vaporized=""/>
    <tripinfo id="veh117" depart="117.00" departLane="-87391090#3_0" departPos="5.10" departSpeed="0.00" departDelay="0.00" arrival="217.00" arrivalLane="-833611336#0_0" arrivalPos="41.49" arrivalSpeed="13.35" duration="100.00" routeLength="1185.27" waitingTime="0.00" waitingCount="0" stopTime="0.00" timeLoss="22.25" rerouteNo="1" devices="tripinfo_veh117 routing_veh117" vType="veh_passenger" speedFactor="1.00" vaporized=""/>
    <tripinfo id="veh111" depart="111.00" departLane="-87389658#2_0" departPos="5.10" departSpeed="0.00" departDelay="0.00" arrival="219.00" arrivalLane="834299345_0" arrivalPos="36.06" arrivalSpeed="11.36" duration="108.00" routeLength="1468.76" waitingTime="0.00" waitingCount="0" stopTime="0.00" timeLoss="18.17" rerouteNo="1" devices="tripinfo_veh111 routing_veh111" vType="veh_passenger" speedFactor="0.87" vaporized=""/>
    <tripinfo id="veh85" depart="85.00" departLane="-87393497#4_0" departPos="5.10" departSpeed="0.00" departDelay="0.00" arrival="221.00" arrivalLane="87390816#1_0" arrivalPos="92.38" arrivalSpeed="12.35" duration="136.00" routeLength="1345.33" waitingTime="23.00" waitingCount="2" stopTime="0.00" timeLoss="67.11" rerouteNo="1" devices="tripinfo_veh85 routing_veh85" vType="veh_passenger" speedFactor="0.98" vaporized=""/>
    <tripinfo id="veh21" depart="21.00" departLane="-455566491#2_0" departPos="5.10" departSpeed="0.00" departDelay="0.00" arrival="223.00" arrivalLane="-836214669_0" arrivalPos="237.03" arrivalSpeed="13.85" duration="202.00" routeLength="2636.76" waitingTime="0.00" waitingCount="0" stopTime="0.00" timeLoss="36.37" rerouteNo="1" devices="tripinfo_veh21 routing_veh21" vType="veh_passenger" speedFactor="1.01" vaporized=""/>
    <tripinfo id="veh132" depart="132.00" departLane="-1172487993#1_0" departPos="5.10" departSpeed="0.00" departDelay="0.00" arrival="226.00" arrivalLane="87391227#1_0" arrivalPos="210.51" arrivalSpeed="13.09" duration="94.00" routeLength="1049.29" waitingTime="0.00" waitingCount="0" stopTime="0.00" timeLoss="12.42" rerouteNo="1" devices="tripinfo_veh132 routing_veh132" vType="veh_passenger" speedFactor="0.96" vaporized=""/>
    <tripinfo id="veh12" depart="12.00" departLane="87393172#0_0" departPos="5.10" departSpeed="0.00" departDelay="0.00" arrival="230.00" arrivalLane="-87391090#0_0" arrivalPos="144.31" arrivalSpeed="13.82" duration="218.00" routeLength="2421.56" waitingTime="26.00" waitingCount="2" stopTime="0.00" timeLoss="87.02" rerouteNo="1" devices="tripinfo_veh12 routing_veh12" vType="veh_passenger" speedFactor="1.05" vaporized=""/>
    <tripinfo id="veh33" depart="33.00" departLane="87391795#1_0" departPos="5.10" departSpeed="0.00" departDelay="0.00" arrival="230.00" arrivalLane="1087114231#1_0" arrivalPos="93.92" arrivalSpeed="15.93" duration="197.00" routeLength="2487.20" waitingTime="0.00" waitingCount="0" stopTime="0.00" timeLoss="41.48" rerouteNo="1" devices="tripinfo_veh33 routing_veh33" vType="veh_passenger" speedFactor="1.17" vaporized=""/>
    <tripinfo id="veh82" depart="82.00" departLane="-833915351_0" departPos="5.10" departSpeed="0.00" departDelay="0.00" arrival="233.00" arrivalLane="1016445800#3_0" arrivalPos="348.48" arrivalSpeed="22.44" duration="151.00" routeLength="2650.60" waitingTime="0.00" waitingCount="0" stopTime="0.00" timeLoss="15.66" rerouteNo="1" devices="tripinfo_veh82 routing_veh82" vType="veh_passenger" speedFactor="1.02" vaporized=""/>
    <tripinfo id="veh57" depart="57.00" departLane="87390838#0_0" departPos="5.10" departSpeed="0.00" departDelay="0.00" arrival="234.00" arrivalLane="87393021#0_0" arrivalPos="11.38" arrivalSpeed="9.65" duration="177.00" routeLength="2476.94" waitingTime="17.00" waitingCount="3" stopTime="0.00" timeLoss="75.94" rerouteNo="1" devices="tripinfo_veh57 routing_veh57" vType="veh_passenger" speedFactor="1.14" vaporized=""/>
    <tripinfo id="veh116" depart="116.00" departLane="87390898#3_0" departPos="5.10" departSpeed="0.00" departDelay="0.00" arrival="234.00" arrivalLane="87391124#9_0" arrivalPos="37.69" arrivalSpeed="16.01" duration="118.00" routeLength="1601.89" waitingTime="0.00" waitingCount="0" stopTime="0.00" timeLoss="26.37" rerouteNo="1" devices="tripinfo_veh116 routing_veh116" vType="veh_passenger" speedFactor="1.18" vaporized=""/>
    <tripinfo id="veh134" depart="134.00" departLane="87389761#2_0" departPos="5.10" departSpeed="0.00" departDelay="0.00" arrival="236.00" arrivalLane="496915258#1_0" arrivalPos="60.05" arrivalSpeed="15.99" duration="102.00" routeLength="1271.50" waitingTime="0.00" waitingCount="0" stopTime="0.00" timeLoss="28.56" rerouteNo="1" devices="tripinfo_veh134 routing_veh134" vType="veh_passenger" speedFactor="1.23" vaporized=""/>
    <tripinfo id="veh143" depart="143.00" departLane="-1087114223#1_0" departPos="5.10" departSpeed="0.00" departDelay="0.00" arrival="238.00" arrivalLane="834277394#1_0" arrivalPos="69.84" arrivalSpeed="14.87" duration="95.00" routeLength="1505.68" waitingTime="0.00" waitingCount="0" stopTime="0.00" timeLoss="24.30" rerouteNo="1" devices="tripinfo_veh143 routing_veh143" vType="veh_passenger" speedFactor="1.13" vaporized=""/>
    <tripinfo id="veh3" depart="3.00" departLane="87391151#2_0" departPos="5.10" departSpeed="0.00" departDelay="0.00" arrival="245.00" arrivalLane="-401434287#1_0" arrivalPos="5.89" arrivalSpeed="14.49" duration="242.00" routeLength="2755.11" waitingTime="31.00" waitingCount="3" stopTime="0.00" timeLoss="113.40" rerouteNo="1" devices="tripinfo_veh3 routing_veh3" vType="veh_passenger" speedFactor="1.08" vaporized=""/>
    <tripinfo id="veh99" depart="99.00" departLane="1089368230#3_0" departPos="5.10" departSpeed="0.00" departDelay="0.00" arrival="258.00" arrivalLane="87390595_1" arrivalPos="0.20" arrivalSpeed="9.03" duration="159.00" routeLength="1547.15" waitingTime="25.00" waitingCount="2" stopTime="0.00" timeLoss="70.89" rerouteNo="1" devices="tripinfo_veh99 routing_veh99" vType="veh_passenger" speedFactor="1.10" vaporized=""/>
    <tripinfo id="veh16" depart="16.00" departLane="1095438820#2_0" departPos="5.10" departSpeed="0.00" departDelay="0.00" arrival="260.00" arrivalLane="87393953_0" arrivalPos="80.74" arrivalSpeed="11.94" duration="244.00" routeLength="2917.25" waitingTime="10.00" waitingCount="2" stopTime="0.00" timeLoss="70.91" rerouteNo="1" devices="tripinfo_veh16 routing_veh16" vType="veh_passenger" speedFactor="0.88" vaporized=""/>
    <tripinfo id="veh52" depart="52.00" departLane="834286993#1_0" departPos="5.10" departSpeed="0.00" departDelay="0.00" arrival="264.00" arrivalLane="113892077#1_0" arrivalPos="54.54" arrivalSpeed="12.87" duration="212.00" routeLength="2685.29" waitingTime="0.00" waitingCount="0" stopTime="0.00" timeLoss="34.09" rerouteNo="1" devices="tripinfo_veh52 routing_veh52" vType="veh_passenger" speedFactor="1.02" vaporized=""/>
    <tripinfo id="veh11" depart="11.00" departLane="-87390249#0_0" departPos="5.10" departSpeed="0.00" departDelay="0.00" arrival="265.00" arrivalLane="-833605583_0" arrivalPos="55.94" arrivalSpeed="13.06" duration="254.00" routeLength="2530.49" waitingTime="45.00" waitingCount="3" stopTime="0.00" timeLoss="116.30" rerouteNo="1" devices="tripinfo_veh11 routing_veh11" vType="veh_passenger" speedFactor="1.03" vaporized=""/>
    <tripinfo id="veh83" depart="83.00" departLane="-87392777#1_0" departPos="5.10" departSpeed="0.00" departDelay="0.00" arrival="267.00" arrivalLane="-836218822#0_0" arrivalPos="64.84" arrivalSpeed="12.19" duration="184.00" routeLength="1983.38" waitingTime="21.00" waitingCount="1" stopTime="0.00" timeLoss="58.86" rerouteNo="1" devices="tripinfo_veh83 routing_veh83" vType="veh_passenger" speedFactor="0.97" vaporized=""/>
    <tripinfo id="veh106" depart="106.00" departLane="-87392730#0_0" departPos="5.10" departSpeed="0.00" departDelay="0.00" arrival="267.00" arrivalLane="496915278#1_0" arrivalPos="16.14" arrivalSpeed="13.53" duration="161.00" routeLength="1578.09" waitingTime="18.00" waitingCount="1" stopTime="0.00" timeLoss="56.67" rerouteNo="1" devices="tripinfo_veh106 routing_veh106" vType="veh_passenger" speedFactor="1.01" vaporized=""/>
    <tripinfo id="veh77" depart="77.00" departLane="-87392788#4_0" departPos="5.10" departSpeed="0.00" departDelay="0.00" arrival="269.00" arrivalLane="1089368235#2_0" arrivalPos="53.65" arrivalSpeed="17.97" duration="192.00" routeLength="2970.65" waitingTime="0.00" waitingCount="0" stopTime="0.00" timeLoss="33.06" rerouteNo="1" devices="tripinfo_veh77 routing_veh77" vType="veh_passenger" speedFactor="0.98" vaporized=""/>
    <tripinfo id="veh135" depart="135.00" departLane="-854698379_0" departPos="5.10" departSpeed="0.00" departDelay="0.00" arrival="274.00" arrivalLane="87391631#0_0" arrivalPos="89.18" arrivalSpeed="20.23" duration="139.00" routeLength="1999.79" waitingTime="0.00" waitingCount="0" stopTime="0.00" timeLoss="24.02" rerouteNo="1" devices="tripinfo_veh135 routing_veh135" vType="veh_passenger" speedFactor="1.01" vaporized=""/>
    <tripinfo id="veh107" depart="107.00" departLane="1091362660#0_0" departPos="5.10" departSpeed="0.00" departDelay="0.00" arrival="279.00" arrivalLane="87392730#2_0" arrivalPos="48.09" arrivalSpeed="14.31" duration="172.00" routeLength="1328.44" waitingTime="45.00" waitingCount="4" stopTime="0.00" timeLoss="98.05" rerouteNo="1" devices="tripinfo_veh107 routing_veh107" vType="veh_passenger" speedFactor="1.03" vaporized=""/>
    <tripinfo id="veh161" depart="161.00" departLane="416469403#3_0" departPos="5.10" departSpeed="0.00" departDelay="0.00" arrival="283.00" arrivalLane="1101827191#4_0" arrivalPos="67.72" arrivalSpeed="29.91" duration="122.00" routeLength="2175.48" waitingTime="0.00" waitingCount="0" stopTime="0.00" timeLoss="25.95" rerouteNo="1" devices="tripinfo_veh161 routing_veh161" vType="veh_passenger" speedFactor="1.08" vaporized=""/>
    <tripinfo id="veh9" depart="9.00" departLane="836217509#1_0" departPos="5.10" departSpeed="0.00" departDelay="0.00" arrival="291.00" arrivalLane="-1008406071_0" arrivalPos="37.04" arrivalSpeed="10.74" duration="282.00" routeLength="3127.73" waitingTime="61.00" waitingCount="5" stopTime="0.00" timeLoss="115.74" rerouteNo="1" devices="tripinfo_veh9 routing_veh9" vType="veh_passenger" speedFactor="0.86" vaporized=""/>
    <tripinfo id="veh47" depart="47.00" departLane="1088690947#1_0" departPos="0.20" departSpeed="0.00" departDelay="0.00" arrival="291.00" arrivalLane="-833940221_0" arrivalPos="34.71" arrivalSpeed="11.25" duration="244.00" routeLength="3513.13" waitingTime="0.00" waitingCount="0" stopTime="0.00" timeLoss="36.48" rerouteNo="1" devices="tripinfo_veh47 routing_veh47" vType="veh_passenger" speedFactor="0.90" vaporized=""/>
    <tripinfo id="veh113" depart="113.00" departLane="940274820#1_0" departPos="5.10" departSpeed="0.00" departDelay="0.00" arrival="293.00" arrivalLane="939203349#0_0" arrivalPos="27.59" arrivalSpeed="10.37" duration="180.00" routeLength="2471.31" waitingTime="0.00" waitingCount="0" stopTime="0.00" timeLoss="35.99" rerouteNo="1" devices="tripinfo_veh113 routing_veh113" vType="veh_passenger" speedFactor="1.01" vaporized=""/>
    <tripinfo id="veh39" depart="39.00" departLane="-1105898968#0_0" departPos="5.10" departSpeed="0.00" departDelay="0.00" arrival="297.00" arrivalLane="-87392689_0" arrivalPos="66.41" arrivalSpeed="11.61" duration="258.00" routeLength="2893.99" waitingTime="0.00" waitingCount="0" stopTime="0.00" timeLoss="48.83" rerouteNo="1" devices="tripinfo_veh39 routing_veh39" vType="veh_passenger" speedFactor="0.90" vaporized=""/>
    <tripinfo id="veh44" depart="44.00" departLane="-505371070#4_0" departPos="5.10" departSpeed="0.00" departDelay="0.00" arrival="298.00" arrivalLane="1008042793_0" arrivalPos="34.73" arrivalSpeed="13.57" duration="254.00" routeLength="2981.19" waitingTime="19.00" waitingCount="4" stopTime="0.00" timeLoss="117.97" rerouteNo="1" devices="tripinfo_veh44 routing_veh44" vType="veh_passenger" speedFactor="1.04" vaporized=""/>
    <tripinfo id="veh17" depart="17.00" departLane="87389680#3_0" departPos="5.10" departSpeed="0.00" departDelay="0.00" arrival="299.00" arrivalLane="616138215#1_0" arrivalPos="80.81" arrivalSpeed="12.10" duration="282.00" routeLength="5000.23" waitingTime="0.00" waitingCount="0" stopTime="0.00" timeLoss="27.22" rerouteNo="1" devices="tripinfo_veh17 routing_veh17" vType="veh_passenger" speedFactor="0.94" vaporized=""/>
    <tripinfo id="veh66" depart="66.00" departLane="-541636220_0" departPos="5.10" departSpeed="0.00" departDelay="0.00" arrival="300.00" arrivalLane="-834249521#0_0" arrivalPos="59.86" arrivalSpeed="11.99" duration="234.00" routeLength="2943.57" waitingTime="9.00" waitingCount="1" stopTime="0.00" timeLoss="61.19" rerouteNo="1" devices="tripinfo_veh66 routing_veh66" vType="veh_passenger" speedFactor="0.91" vaporized=""/>
    <tripinfo id="veh74" depart="74.00" departLane="1007602478_0" departPos="5.10" departSpeed="0.00" departDelay="0.00" arrival="300.00" arrivalLane="836219067#0_0" arrivalPos="73.53" arrivalSpeed="19.92" duration="226.00" routeLength="2400.12" waitingTime="0.00" waitingCount="0" stopTime="0.00" timeLoss="44.34" rerouteNo="1" devices="tripinfo_veh74 routing_veh74" vType="veh_passenger" speedFactor="0.96" vaporized=""/>
    <tripinfo id="veh88" depart="88.00" departLane="87393721#0_0" departPos="5.10" departSpeed="0.00" departDelay="0.00" arrival="301.00" arrivalLane="87392435#2_0" arrivalPos="100.81" arrivalSpeed="13.59" duration="213.00" routeLength="3084.14" waitingTime="0.00" waitingCount="0" stopTime="0.00" timeLoss="23.92" rerouteNo="1" devices="tripinfo_veh88 routing_veh88" vType="veh_passenger" speedFactor="1.01" vaporized=""/>
    <tripinfo id="veh120" depart="120.00" departLane="742032897_0" departPos="5.10" departSpeed="0.00" departDelay="0.00" arrival="303.00" arrivalLane="-1009783480_0" arrivalPos="118.48" arrivalSpeed="12.85" duration="183.00" routeLength="2123.62" waitingTime="0.00" waitingCount="0" stopTime="0.00" timeLoss="18.18" rerouteNo="1" devices="tripinfo_veh120 routing_veh120" vType="veh_passenger" speedFactor="0.94" vaporized=""/>
    <tripinfo id="veh176" depart="176.00" departLane="-836222062#4_0" departPos="5.10" departSpeed="0.00" departDelay="0.00" arrival="304.00" arrivalLane="1227512773_0" arrivalPos="37.42" arrivalSpeed="14.54" duration="128.00" routeLength="1839.92" waitingTime="0.00" waitingCount="0" stopTime="0.00" timeLoss="27.13" rerouteNo="1" devices="tripinfo_veh176 routing_veh176" vType="veh_passenger" speedFactor="1.09" vaporized=""/>
    <tripinfo id="veh72" depart="72.00" departLane="-833950532_0" departPos="5.10" departSpeed="0.00" departDelay="0.00" arrival="305.00" arrivalLane="-627276959_0" arrivalPos="0.20" arrivalSpeed="7.41" duration="233.00" routeLength="3429.07" waitingTime="3.00" waitingCount="1" stopTime="0.00" timeLoss="65.02" rerouteNo="1" devices="tripinfo_veh72 routing_veh72" vType="veh_passenger" speedFactor="0.94" vaporized=""/>
    <tripinfo id="veh126" depart="126.00" departLane="1016445802#2_0" departPos="5.10" departSpeed="0.00" departDelay="0.00" arrival="305.00" arrivalLane="87391801#4_0" arrivalPos="39.61" arrivalSpeed="13.31" duration="179.00" routeLength="2181.64" waitingTime="7.00" waitingCount="2" stopTime="0.00" timeLoss="42.04" rerouteNo="1" devices="tripinfo_veh126 routing_veh126" vType="veh_passenger" speedFactor="1.03" vaporized=""/>
    <tripinfo id="veh76" depart="76.00" departLane="-401451305#1_0" departPos="5.10" departSpeed="0.00" departDelay="0.00" arrival="306.00" arrivalLane="1007904304_0" arrivalPos="88.43" arrivalSpeed="13.33" duration="230.00" routeLength="3953.45" waitingTime="0.00" waitingCount="0" stopTime="0.00" timeLoss="39.11" rerouteNo="1" devices="tripinfo_veh76 routing_veh76" vType="veh_passenger" speedFactor="1.03" vaporized=""/>
    <tripinfo id="veh29" depart="29.00" departLane="87389950_0" departPos="5.10" departSpeed="0.00" departDelay="0.00" arrival="307.00" arrivalLane="836210999_0" arrivalPos="72.97" arrivalSpeed="11.98" duration="278.00" routeLength="3881.64" waitingTime="6.00" waitingCount="1" stopTime="0.00" timeLoss="54.29" rerouteNo="1" devices="tripinfo_veh29 routing_veh29" vType="veh_passenger" speedFactor="0.93" vaporized=""/>