<?xml version="1.0" encoding="UTF-8"?>

<!-- generated on 2025-11-19T23:53:53.527477-05:00 by Eclipse SUMO GUI 1.25.0
<sumoConfiguration xmlns:xsi="http://www.w3.org/2001/XMLSchema-instance" xsi:noNamespaceSchemaLocation="http://sumo.dlr.de/xsd/sumoConfiguration.xsd">

    <input>
        <net-file value="./sumoData/TestLightsSogamosoNet.net.xml"/>
        <route-files value="./sumoData/osm.passenger.trips.xml"/>
        <additional-files value="./sumoData/output.add.xml"/>
    </input>

    <output>
        <tripinfo-output value="./sumoData/tripinfos.xml"/>
        <statistic-output value="./sumoData/stats.xml"/>
    </output>

    <processing>
        <ignore-route-errors value="true"/>
        <tls.actuated.jam-threshold value="30"/>
    </processing>

    <routing>
        <device.rerouting.adaptation-steps value="18"/>
        <device.rerouting.adaptation-interval value="10"/>
    </routing>

    <report>
        <verbose value="true"/>
        <duration-log.statistics value="true"/>
        <no-step-log value="true"/>
    </report>

    <traci_server>
        <remote-port value="54018"/>
    </traci_server>

    <gui_only>
        <gui-settings-file value="./sumoData/osm.view.xml"/>
    </gui_only>

</sumoConfiguration>
-->

<tripinfos xmlns:xsi="http://www.w3.org/2001/XMLSchema-instance" xsi:noNamespaceSchemaLocation="http://sumo.dlr.de/xsd/tripinfo_file.xsd">
</tripinfos>
