<?xml version="1.0" encoding="UTF-8"?>

<!-- generated on 2025-11-19 00:19:01 by Eclipse SUMO GUI Version 1.24.0
<sumoConfiguration xmlns:xsi="http://www.w3.org/2001/XMLSchema-instance" xsi:noNamespaceSchemaLocation="http://sumo.dlr.de/xsd/sumoConfiguration.xsd">

    <input>
        <net-file value="C:\Users\Bienvenido\Documents\UPTC\OctavoSemestre\Inteligencia\ProyectoFinal\El-agente-berraco-de-movilidad\sumoData\TestLightsSogamosoNet.net.xml"/>
        <route-files value="C:\Users\Bienvenido\Documents\UPTC\OctavoSemestre\Inteligencia\ProyectoFinal\El-agente-berraco-de-movilidad\sumoData\osm.passenger.trips.xml"/>
        <additional-files value="C:\Users\Bienvenido\Documents\UPTC\OctavoSemestre\Inteligencia\ProyectoFinal\El-agente-berraco-de-movilidad\sumoData\output.add.xml"/>
    </input>

    <output>
        <tripinfo-output value="C:\Users\Bienvenido\Documents\UPTC\OctavoSemestre\Inteligencia\ProyectoFinal\El-agente-berraco-de-movilidad\sumoData\tripinfos.xml"/>
        <statistic-output value="C:\Users\Bienvenido\Documents\UPTC\OctavoSemestre\Inteligencia\ProyectoFinal\El-agente-berraco-de-movilidad\sumoData\stats.xml"/>
    </output>

    <processing>
        <ignore-route-errors value="true"/>
        <tls.actuated.jam-threshold value="30"/>
    </processing>

    <routing>
        <device.rerouting.adaptation-steps value="18"/>
        <device.rerouting.adaptation-interval value="10"/>
    </routing>

    <report>
        <verbose value="true"/>
        <duration-log.statistics value="true"/>
        <no-step-log value="true"/>
    </report>

    <gui_only>
        <gui-settings-file value="C:\Users\Bienvenido\Documents\UPTC\OctavoSemestre\Inteligencia\ProyectoFinal\El-agente-berraco-de-movilidad\sumoData\osm.view.xml"/>
    </gui_only>

</sumoConfiguration>
-->

<tripinfos xmlns:xsi="http://www.w3.org/2001/XMLSchema-instance" xsi:noNamespaceSchemaLocation="http://sumo.dlr.de/xsd/tripinfo_file.xsd">
    <tripinfo id="veh22" depart="11.00" departLane="615948335#1_0" departPos="5.10" departSpeed="0.00" departDelay="0.30" arrival="69.00" arrivalLane="-87392435#2_0" arrivalPos="99.35" arrivalSpeed="12.86" duration="58.00" routeLength="591.52" waitingTime="0.00" waitingCount="0" stopTime="0.00" timeLoss="10.98" rerouteNo="1" devices="tripinfo_veh22 routing_veh22" vType="veh_passenger" speedFactor="0.97" vaporized=""/>
    <tripinfo id="veh8" depart="4.00" departLane="863696787#1_1" departPos="3.30" departSpeed="0.00" departDelay="0.11" arrival="82.00" arrivalLane="-1008406071_0" arrivalPos="37.04" arrivalSpeed="12.54" duration="78.00" routeLength="1120.81" waitingTime="0.00" waitingCount="0" stopTime="0.00" timeLoss="21.23" rerouteNo="1" devices="tripinfo_veh8 routing_veh8" vType="veh_passenger" speedFactor="0.94" vaporized=""/>
    <tripinfo id="veh9" depart="5.00" departLane="-87390584#0_0" departPos="5.10" departSpeed="0.00" departDelay="0.62" arrival="85.00" arrivalLane="-833611346#0_0" arrivalPos="46.72" arrivalSpeed="11.83" duration="80.00" routeLength="741.41" waitingTime="0.00" waitingCount="0" stopTime="0.00" timeLoss="13.63" rerouteNo="1" devices="tripinfo_veh9 routing_veh9" vType="veh_passenger" speedFactor="0.86" vaporized=""/>
    <tripinfo id="veh55" depart="27.00" departLane="496915245#1_0" departPos="5.10" departSpeed="0.00" departDelay="0.24" arrival="92.00" arrivalLane="-833605588_0" arrivalPos="70.17" arrivalSpeed="12.71" duration="65.00" routeLength="611.64" waitingTime="0.00" waitingCount="0" stopTime="0.00" timeLoss="18.19" rerouteNo="1" devices="tripinfo_veh55 routing_veh55" vType="veh_passenger" speedFactor="1.00" vaporized=""/>
    <tripinfo id="veh33" depart="17.00" departLane="-833959013_0" departPos="5.10" departSpeed="15.31" departDelay="0.95" arrival="93.00" arrivalLane="87393015_0" arrivalPos="62.26" arrivalSpeed="15.05" duration="76.00" routeLength="1226.97" waitingTime="0.00" waitingCount="0" stopTime="0.00" timeLoss="17.68" rerouteNo="1" devices="tripinfo_veh33 routing_veh33" vType="veh_passenger" speedFactor="1.17" vaporized=""/>
    <tripinfo id="veh46" depart="23.00" departLane="87393919#4_0" departPos="5.10" departSpeed="0.00" departDelay="0.62" arrival="93.00" arrivalLane="87390853#0_0" arrivalPos="66.72" arrivalSpeed="13.12" duration="70.00" routeLength="779.37" waitingTime="0.00" waitingCount="0" stopTime="0.00" timeLoss="16.71" rerouteNo="1" devices="tripinfo_veh46 routing_veh46" vType="veh_passenger" speedFactor="1.00" vaporized=""/>
    <tripinfo id="veh72" depart="36.00" departLane="-834254837_0" departPos="5.10" departSpeed="13.06" departDelay="0.97" arrival="93.00" arrivalLane="-834254831_0" arrivalPos="109.91" arrivalSpeed="12.17" duration="57.00" routeLength="612.51" waitingTime="0.00" waitingCount="0" stopTime="0.00" timeLoss="8.88" rerouteNo="1" devices="tripinfo_veh72 routing_veh72" vType="veh_passenger" speedFactor="0.94" vaporized=""/>
    <tripinfo id="veh40" depart="20.00" departLane="939235082_0" departPos="5.10" departSpeed="0.00" departDelay="0.54" arrival="110.00" arrivalLane="1105898926#1_0" arrivalPos="83.13" arrivalSpeed="27.49" duration="90.00" routeLength="1168.45" waitingTime="0.00" waitingCount="0" stopTime="0.00" timeLoss="17.55" rerouteNo="1" devices="tripinfo_veh40 routing_veh40" vType="veh_passenger" speedFactor="1.03" vaporized=""/>
    <tripinfo id="veh110" depart="54.00" departLane="1095438792#1_0" departPos="5.10" departSpeed="0.00" departDelay="0.49" arrival="112.00" arrivalLane="87392805_0" arrivalPos="45.47" arrivalSpeed="12.12" duration="58.00" routeLength="562.93" waitingTime="0.00" waitingCount="0" stopTime="0.00" timeLoss="15.26" rerouteNo="1" devices="tripinfo_veh110 routing_veh110" vType="veh_passenger" speedFactor="0.93" vaporized=""/>
    <tripinfo id="veh82" depart="40.00" departLane="-87393277#1_0" departPos="5.10" departSpeed="0.00" departDelay="0.11" arrival="113.00" arrivalLane="1089568185#1_0" arrivalPos="20.59" arrivalSpeed="13.55" duration="73.00" routeLength="902.68" waitingTime="0.00" waitingCount="0" stopTime="0.00" timeLoss="15.32" rerouteNo="1" devices="tripinfo_veh82 routing_veh82" vType="veh_passenger" speedFactor="1.02" vaporized=""/>
    <tripinfo id="veh15" depart="8.00" departLane="-87391693#4_0" departPos="5.10" departSpeed="0.00" departDelay="0.70" arrival="115.00" arrivalLane="254753596#6_0" arrivalPos="125.57" arrivalSpeed="20.49" duration="107.00" routeLength="1585.08" waitingTime="0.00" waitingCount="0" stopTime="0.00" timeLoss="16.60" rerouteNo="1" devices="tripinfo_veh15 routing_veh15" vType="veh_passenger" speedFactor="0.93" vaporized=""/>
    <tripinfo id="veh17" depart="9.00" departLane="87390467#6_0" departPos="5.10" departSpeed="0.00" departDelay="0.73" arrival="117.00" arrivalLane="486194434_0" arrivalPos="122.90" arrivalSpeed="11.95" duration="108.00" routeLength="1325.75" waitingTime="0.00" waitingCount="0" stopTime="0.00" timeLoss="17.76" rerouteNo="1" devices="tripinfo_veh17 routing_veh17" vType="veh_passenger" speedFactor="0.94" vaporized=""/>
    <tripinfo id="veh89" depart="44.00" departLane="-87394014#3_0" departPos="5.10" departSpeed="14.20" departDelay="0.70" arrival="121.00" arrivalLane="87390862#0_0" arrivalPos="34.28" arrivalSpeed="12.26" duration="77.00" routeLength="801.38" waitingTime="0.00" waitingCount="0" stopTime="0.00" timeLoss="17.82" rerouteNo="1" devices="tripinfo_veh89 routing_veh89" vType="veh_passenger" speedFactor="1.02" vaporized=""/>
    <tripinfo id="veh28" depart="14.00" departLane="913900802#6_0" departPos="5.10" departSpeed="0.00" departDelay="0.38" arrival="122.00" arrivalLane="750204851_0" arrivalPos="67.27" arrivalSpeed="14.79" duration="108.00" routeLength="1199.62" waitingTime="0.00" waitingCount="0" stopTime="0.00" timeLoss="27.35" rerouteNo="1" devices="tripinfo_veh28 routing_veh28" vType="veh_passenger" speedFactor="1.13" vaporized=""/>
    <tripinfo id="veh10" depart="5.00" departLane="87393294#2_0" departPos="5.10" departSpeed="0.00" departDelay="0.14" arrival="126.00" arrivalLane="-87391425#5_0" arrivalPos="93.78" arrivalSpeed="14.92" duration="121.00" routeLength="1766.77" waitingTime="0.00" waitingCount="0" stopTime="0.00" timeLoss="28.01" rerouteNo="1" devices="tripinfo_veh10 routing_veh10" vType="veh_passenger" speedFactor="1.09" vaporized=""/>
    <tripinfo id="veh61" depart="30.00" departLane="-87389674_0" departPos="5.10" departSpeed="0.00" departDelay="0.32" arrival="130.00" arrivalLane="-113870449#8_0" arrivalPos="36.59" arrivalSpeed="13.06" duration="100.00" routeLength="1089.73" waitingTime="0.00" waitingCount="0" stopTime="0.00" timeLoss="25.86" rerouteNo="1" devices="tripinfo_veh61 routing_veh61" vType="veh_passenger" speedFactor="1.12" vaporized=""/>
    <tripinfo id="veh185" depart="90.00" departLane="-834277394#1_0" departPos="5.10" departSpeed="12.72" departDelay="0.00" arrival="130.00" arrivalLane="1091358380#1_0" arrivalPos="51.17" arrivalSpeed="20.34" duration="40.00" routeLength="521.38" waitingTime="0.00" waitingCount="0" stopTime="0.00" timeLoss="7.10" rerouteNo="1" devices="tripinfo_veh185 routing_veh185" vType="veh_passenger" speedFactor="0.92" vaporized=""/>
    <tripinfo id="veh51" depart="25.00" departLane="-936189984#5_0" departPos="5.10" departSpeed="0.00" departDelay="0.19" arrival="132.00" arrivalLane="87393326#6_0" arrivalPos="53.24" arrivalSpeed="25.21" duration="107.00" routeLength="2227.82" waitingTime="0.00" waitingCount="0" stopTime="0.00" timeLoss="22.40" rerouteNo="1" devices="tripinfo_veh51 routing_veh51" vType="veh_passenger" speedFactor="1.17" vaporized=""/>
    <tripinfo id="veh138" depart="68.00" departLane="87389848#2_0" departPos="5.10" departSpeed="0.00" departDelay="0.86" arrival="132.00" arrivalLane="505371059#3_0" arrivalPos="121.85" arrivalSpeed="13.29" duration="64.00" routeLength="646.80" waitingTime="0.00" waitingCount="0" stopTime="0.00" timeLoss="16.36" rerouteNo="1" devices="tripinfo_veh138 routing_veh138" vType="veh_passenger" speedFactor="1.00" vaporized=""/>
    <tripinfo id="veh109" depart="54.00" departLane="-87393142#3_0" departPos="5.10" departSpeed="0.00" departDelay="0.97" arrival="138.00" arrivalLane="505371070#4_0" arrivalPos="26.61" arrivalSpeed="12.34" duration="84.00" routeLength="878.43" waitingTime="0.00" waitingCount="0" stopTime="0.00" timeLoss="16.68" rerouteNo="1" devices="tripinfo_veh109 routing_veh109" vType="veh_passenger" speedFactor="0.96" vaporized=""/>
    <tripinfo id="veh69" depart="34.00" departLane="-87393950#2_0" departPos="5.10" departSpeed="0.00" departDelay="0.43" arrival="141.00" arrivalLane="1110401726_0" arrivalPos="22.65" arrivalSpeed="13.67" duration="107.00" routeLength="899.93" waitingTime="19.00" waitingCount="2" stopTime="0.00" timeLoss="42.85" rerouteNo="1" devices="tripinfo_veh69 routing_veh69" vType="veh_passenger" speedFactor="1.02" vaporized=""/>
    <tripinfo id="veh70" depart="35.00" departLane="-541727223#1_0" departPos="5.10" departSpeed="0.00" departDelay="0.95" arrival="145.00" arrivalLane="-834264167#0_0" arrivalPos="25.02" arrivalSpeed="12.30" duration="110.00" routeLength="1366.24" waitingTime="0.00" waitingCount="0" stopTime="0.00" timeLoss="26.25" rerouteNo="1" devices="tripinfo_veh70 routing_veh70" vType="veh_passenger" speedFactor="1.02" vaporized=""/>
    <tripinfo id="veh84" depart="41.00" departLane="-87392527_0" departPos="5.10" departSpeed="0.00" departDelay="0.13" arrival="146.00" arrivalLane="-87391482_0" arrivalPos="509.34" arrivalSpeed="15.77" duration="105.00" routeLength="1379.14" waitingTime="0.00" waitingCount="0" stopTime="0.00" timeLoss="15.76" rerouteNo="1" devices="tripinfo_veh84 routing_veh84" vType="veh_passenger" speedFactor="1.15" vaporized=""/>
    <tripinfo id="veh78" depart="38.00" departLane="87392566#2_0" departPos="5.10" departSpeed="0.00" departDelay="0.05" arrival="150.00" arrivalLane="406320076#3_0" arrivalPos="66.67" arrivalSpeed="27.70" duration="112.00" routeLength="2054.37" waitingTime="0.00" waitingCount="0" stopTime="0.00" timeLoss="13.63" rerouteNo="1" devices="tripinfo_veh78 routing_veh78" vType="veh_passenger" speedFactor="1.01" vaporized=""/>
    <tripinfo id="veh14" depart="7.00" departLane="1101817937_0" departPos="5.10" departSpeed="0.00" departDelay="0.19" arrival="161.00" arrivalLane="87393989#4_1" arrivalPos="96.03" arrivalSpeed="26.94" duration="154.00" routeLength="3115.35" waitingTime="0.00" waitingCount="0" stopTime="0.00" timeLoss="29.00" rerouteNo="1" devices="tripinfo_veh14 routing_veh14" vType="veh_passenger" speedFactor="0.99" vaporized=""/>
    <tripinfo id="veh182" depart="89.00" departLane="87389593#3_0" departPos="2.08" departSpeed="0.00" departDelay="0.46" arrival="162.00" arrivalLane="834321210_0" arrivalPos="54.54" arrivalSpeed="13.18" duration="73.00" routeLength="1656.64" waitingTime="0.00" waitingCount="0" stopTime="0.00" timeLoss="11.35" rerouteNo="1" devices="tripinfo_veh182 routing_veh182" vType="veh_passenger" speedFactor="1.03" vaporized=""/>
    <tripinfo id="veh123" depart="60.00" departLane="773691275#1_0" departPos="5.10" departSpeed="0.00" departDelay="0.16" arrival="163.00" arrivalLane="-1009885019_0" arrivalPos="41.16" arrivalSpeed="12.47" duration="103.00" routeLength="1292.10" waitingTime="0.00" waitingCount="0" stopTime="0.00" timeLoss="25.87" rerouteNo="1" devices="tripinfo_veh123 routing_veh123" vType="veh_passenger" speedFactor="1.02" vaporized=""/>
    <tripinfo id="veh150" depart="75.00" departLane="87389436#5_0" departPos="5.10" departSpeed="0.00" departDelay="2.03" arrival="164.00" arrivalLane="-836210991_0" arrivalPos="71.65" arrivalSpeed="12.66" duration="89.00" routeLength="1299.94" waitingTime="0.00" waitingCount="0" stopTime="0.00" timeLoss="15.92" rerouteNo="1" devices="tripinfo_veh150 routing_veh150" vType="veh_passenger" speedFactor="0.96" vaporized=""/>
    <tripinfo id="veh38" depart="19.00" departLane="311609730#0_0" departPos="5.10" departSpeed="0.00" departDelay="0.51" arrival="165.00" arrivalLane="87391683#0_0" arrivalPos="14.21" arrivalSpeed="10.72" duration="146.00" routeLength="2467.44" waitingTime="0.00" waitingCount="0" stopTime="0.00" timeLoss="30.76" rerouteNo="1" devices="tripinfo_veh38 routing_veh38" vType="veh_passenger" speedFactor="1.10" vaporized=""/>
    <tripinfo id="veh47" depart="23.00" departLane="-1016016983_0" departPos="5.10" departSpeed="12.51" departDelay="0.13" arrival="168.00" arrivalLane="834264170#3_0" arrivalPos="67.20" arrivalSpeed="12.17" duration="145.00" routeLength="2244.87" waitingTime="0.00" waitingCount="0" stopTime="0.00" timeLoss="17.22" rerouteNo="1" devices="tripinfo_veh47 routing_veh47" vType="veh_passenger" speedFactor="0.90" vaporized=""/>
    <tripinfo id="veh230" depart="112.00" departLane="985540780_0" departPos="5.10" departSpeed="0.00" departDelay="0.11" arrival="169.00" arrivalLane="-87391835_0" arrivalPos="81.63" arrivalSpeed="13.16" duration="57.00" routeLength="599.47" waitingTime="0.00" waitingCount="0" stopTime="0.00" timeLoss="20.53" rerouteNo="1" devices="tripinfo_veh230 routing_veh230" vType="veh_passenger" speedFactor="1.04" vaporized=""/>
    <tripinfo id="veh179" depart="88.00" departLane="1016550042_0" departPos="0.20" departSpeed="0.00" departDelay="0.92" arrival="170.00" arrivalLane="87391787#0_0" arrivalPos="21.42" arrivalSpeed="13.82" duration="82.00" routeLength="1201.07" waitingTime="0.00" waitingCount="0" stopTime="0.00" timeLoss="17.39" rerouteNo="1" devices="tripinfo_veh179 routing_veh179" vType="veh_passenger" speedFactor="1.06" vaporized=""/>
    <tripinfo id="veh227" depart="114.00" departLane="834277386#0_0" departPos="5.10" departSpeed="0.00" departDelay="3.57" arrival="170.00" arrivalLane="-87392992#0_0" arrivalPos="64.40" arrivalSpeed="14.52" duration="56.00" routeLength="706.49" waitingTime="0.00" waitingCount="0" stopTime="0.00" timeLoss="15.59" rerouteNo="1" devices="tripinfo_veh227 routing_veh227" vType="veh_passenger" speedFactor="1.11" vaporized=""/>
</tripinfos>
