<?xml version="1.0" encoding="UTF-8"?>

<!-- generated on 2025-10-25 21:23:57 by Eclipse SUMO sumo Version 1.24.0
<sumoConfiguration xmlns:xsi="http://www.w3.org/2001/XMLSchema-instance" xsi:noNamespaceSchemaLocation="http://sumo.dlr.de/xsd/sumoConfiguration.xsd">

    <input>
        <net-file value="..\2025-10-25-20-59-08\osm.net.xml.gz"/>
        <route-files value="..\2025-10-25-20-59-08\osm.passenger.trips.xml"/>
        <additional-files value="..\2025-10-25-20-59-08\output.add.xml"/>
    </input>

    <output>
        <tripinfo-output value="..\2025-10-25-20-59-08\tripinfos.xml"/>
        <statistic-output value="..\2025-10-25-20-59-08\stats.xml"/>
    </output>

    <processing>
        <ignore-route-errors value="true"/>
        <tls.actuated.jam-threshold value="30"/>
    </processing>

    <routing>
        <device.rerouting.adaptation-steps value="18"/>
        <device.rerouting.adaptation-interval value="10"/>
    </routing>

    <report>
        <verbose value="true"/>
        <duration-log.disable value="true"/>
        <duration-log.statistics value="true"/>
        <no-step-log value="true"/>
    </report>

    <traci_server>
        <remote-port value="64182"/>
    </traci_server>

    <gui_only>
        <gui-settings-file value="..\2025-10-25-20-59-08\osm.view.xml"/>
    </gui_only>

</sumoConfiguration>
-->

<tripinfos xmlns:xsi="http://www.w3.org/2001/XMLSchema-instance" xsi:noNamespaceSchemaLocation="http://sumo.dlr.de/xsd/tripinfo_file.xsd">
    <tripinfo id="veh22" depart="11.00" departLane="615948335#1_0" departPos="5.10" departSpeed="0.00" departDelay="0.30" arrival="69.00" arrivalLane="-87392435#2_0" arrivalPos="99.35" arrivalSpeed="12.37" duration="58.00" routeLength="591.53" waitingTime="0.00" waitingCount="0" stopTime="0.00" timeLoss="11.58" rerouteNo="1" devices="tripinfo_veh22 routing_veh22" vType="veh_passenger" speedFactor="0.97" vaporized=""/>
    <tripinfo id="veh8" depart="4.00" departLane="863696787#1_1" departPos="3.30" departSpeed="0.00" departDelay="0.11" arrival="79.00" arrivalLane="-1008406071_0" arrivalPos="37.04" arrivalSpeed="12.94" duration="75.00" routeLength="1120.76" waitingTime="0.00" waitingCount="0" stopTime="0.00" timeLoss="18.79" rerouteNo="1" devices="tripinfo_veh8 routing_veh8" vType="veh_passenger" speedFactor="0.94" vaporized=""/>
    <tripinfo id="veh9" depart="5.00" departLane="-87390584#0_0" departPos="5.10" departSpeed="0.00" departDelay="0.62" arrival="84.00" arrivalLane="-833611346#0_0" arrivalPos="46.72" arrivalSpeed="10.77" duration="79.00" routeLength="741.40" waitingTime="0.00" waitingCount="0" stopTime="0.00" timeLoss="12.91" rerouteNo="1" devices="tripinfo_veh9 routing_veh9" vType="veh_passenger" speedFactor="0.86" vaporized=""/>
    <tripinfo id="veh55" depart="27.00" departLane="496915245#1_0" departPos="5.10" departSpeed="0.00" departDelay="0.24" arrival="89.00" arrivalLane="-833605588_0" arrivalPos="70.17" arrivalSpeed="12.61" duration="62.00" routeLength="611.65" waitingTime="0.00" waitingCount="0" stopTime="0.00" timeLoss="15.02" rerouteNo="1" devices="tripinfo_veh55 routing_veh55" vType="veh_passenger" speedFactor="1.00" vaporized=""/>
    <tripinfo id="veh33" depart="17.00" departLane="-833959013_0" departPos="5.10" departSpeed="15.31" departDelay="0.95" arrival="94.00" arrivalLane="87393015_0" arrivalPos="62.26" arrivalSpeed="16.17" duration="77.00" routeLength="1226.95" waitingTime="0.00" waitingCount="0" stopTime="0.00" timeLoss="18.51" rerouteNo="1" devices="tripinfo_veh33 routing_veh33" vType="veh_passenger" speedFactor="1.17" vaporized=""/>
    <tripinfo id="veh46" depart="23.00" departLane="87393919#4_0" departPos="5.10" departSpeed="0.00" departDelay="0.62" arrival="94.00" arrivalLane="87390853#0_0" arrivalPos="66.72" arrivalSpeed="12.71" duration="71.00" routeLength="779.35" waitingTime="0.00" waitingCount="0" stopTime="0.00" timeLoss="17.59" rerouteNo="1" devices="tripinfo_veh46 routing_veh46" vType="veh_passenger" speedFactor="1.00" vaporized=""/>
    <tripinfo id="veh72" depart="36.00" departLane="-834254837_0" departPos="5.10" departSpeed="13.06" departDelay="0.97" arrival="94.00" arrivalLane="-834254831_0" arrivalPos="109.91" arrivalSpeed="12.66" duration="58.00" routeLength="612.50" waitingTime="0.00" waitingCount="0" stopTime="0.00" timeLoss="8.87" rerouteNo="1" devices="tripinfo_veh72 routing_veh72" vType="veh_passenger" speedFactor="0.94" vaporized=""/>
    <tripinfo id="veh40" depart="20.00" departLane="939235082_0" departPos="5.10" departSpeed="0.00" departDelay="0.54" arrival="108.00" arrivalLane="1105898926#1_0" arrivalPos="83.13" arrivalSpeed="27.92" duration="88.00" routeLength="1168.46" waitingTime="0.00" waitingCount="0" stopTime="0.00" timeLoss="15.66" rerouteNo="1" devices="tripinfo_veh40 routing_veh40" vType="veh_passenger" speedFactor="1.03" vaporized=""/>
    <tripinfo id="veh17" depart="9.00" departLane="87390467#6_0" departPos="5.10" departSpeed="0.00" departDelay="0.73" arrival="114.00" arrivalLane="486194434_0" arrivalPos="122.90" arrivalSpeed="12.81" duration="105.00" routeLength="1325.74" waitingTime="0.00" waitingCount="0" stopTime="0.00" timeLoss="15.19" rerouteNo="1" devices="tripinfo_veh17 routing_veh17" vType="veh_passenger" speedFactor="0.94" vaporized=""/>
    <tripinfo id="veh69" depart="34.00" departLane="-87393950#2_0" departPos="5.10" departSpeed="0.00" departDelay="0.43" arrival="114.00" arrivalLane="1110401726_0" arrivalPos="22.66" arrivalSpeed="13.44" duration="80.00" routeLength="899.96" waitingTime="0.00" waitingCount="0" stopTime="0.00" timeLoss="15.64" rerouteNo="1" devices="tripinfo_veh69 routing_veh69" vType="veh_passenger" speedFactor="1.02" vaporized=""/>
    <tripinfo id="veh110" depart="54.00" departLane="1095438792#1_0" departPos="5.10" departSpeed="0.00" departDelay="0.49" arrival="114.00" arrivalLane="87392805_0" arrivalPos="45.48" arrivalSpeed="12.80" duration="60.00" routeLength="562.94" waitingTime="0.00" waitingCount="0" stopTime="0.00" timeLoss="16.47" rerouteNo="1" devices="tripinfo_veh110 routing_veh110" vType="veh_passenger" speedFactor="0.93" vaporized=""/>
    <tripinfo id="veh15" depart="8.00" departLane="-87391693#4_0" departPos="5.10" departSpeed="0.00" departDelay="0.70" arrival="116.00" arrivalLane="254753596#6_0" arrivalPos="125.57" arrivalSpeed="20.19" duration="108.00" routeLength="1585.13" waitingTime="0.00" waitingCount="0" stopTime="0.00" timeLoss="19.03" rerouteNo="1" devices="tripinfo_veh15 routing_veh15" vType="veh_passenger" speedFactor="0.93" vaporized=""/>
    <tripinfo id="veh82" depart="40.00" departLane="-87393277#1_0" departPos="5.10" departSpeed="0.00" departDelay="0.11" arrival="116.00" arrivalLane="1089568185#1_0" arrivalPos="20.59" arrivalSpeed="13.02" duration="76.00" routeLength="902.66" waitingTime="0.00" waitingCount="0" stopTime="0.00" timeLoss="18.26" rerouteNo="1" devices="tripinfo_veh82 routing_veh82" vType="veh_passenger" speedFactor="1.02" vaporized=""/>
    <tripinfo id="veh28" depart="14.00" departLane="913900802#6_0" departPos="5.10" departSpeed="0.00" departDelay="0.38" arrival="119.00" arrivalLane="750204851_0" arrivalPos="67.27" arrivalSpeed="15.60" duration="105.00" routeLength="1199.61" waitingTime="0.00" waitingCount="0" stopTime="0.00" timeLoss="24.89" rerouteNo="1" devices="tripinfo_veh28 routing_veh28" vType="veh_passenger" speedFactor="1.13" vaporized=""/>
    <tripinfo id="veh89" depart="44.00" departLane="-87394014#3_0" departPos="5.10" departSpeed="14.20" departDelay="0.70" arrival="123.00" arrivalLane="87390862#0_0" arrivalPos="34.28" arrivalSpeed="13.07" duration="79.00" routeLength="801.38" waitingTime="1.00" waitingCount="1" stopTime="0.00" timeLoss="19.73" rerouteNo="1" devices="tripinfo_veh89 routing_veh89" vType="veh_passenger" speedFactor="1.02" vaporized=""/>
    <tripinfo id="veh185" depart="90.00" departLane="-834277394#1_0" departPos="5.10" departSpeed="12.72" departDelay="0.00" arrival="130.00" arrivalLane="1091358380#1_0" arrivalPos="51.17" arrivalSpeed="19.44" duration="40.00" routeLength="521.36" waitingTime="0.00" waitingCount="0" stopTime="0.00" timeLoss="7.28" rerouteNo="1" devices="tripinfo_veh185 routing_veh185" vType="veh_passenger" speedFactor="0.92" vaporized=""/>
    <tripinfo id="veh138" depart="68.00" departLane="87389848#2_0" departPos="5.10" departSpeed="0.00" departDelay="0.86" arrival="131.00" arrivalLane="505371059#3_0" arrivalPos="121.85" arrivalSpeed="13.20" duration="63.00" routeLength="646.80" waitingTime="0.00" waitingCount="0" stopTime="0.00" timeLoss="15.48" rerouteNo="1" devices="tripinfo_veh138 routing_veh138" vType="veh_passenger" speedFactor="1.00" vaporized=""/>
    <tripinfo id="veh51" depart="25.00" departLane="-936189984#5_0" departPos="5.10" departSpeed="0.00" departDelay="0.19" arrival="132.00" arrivalLane="87393326#6_0" arrivalPos="53.23" arrivalSpeed="25.33" duration="107.00" routeLength="2227.78" waitingTime="0.00" waitingCount="0" stopTime="0.00" timeLoss="22.27" rerouteNo="1" devices="tripinfo_veh51 routing_veh51" vType="veh_passenger" speedFactor="1.17" vaporized=""/>
    <tripinfo id="veh10" depart="5.00" departLane="87393294#2_0" departPos="5.10" departSpeed="0.00" departDelay="0.14" arrival="133.00" arrivalLane="-87391425#5_0" arrivalPos="93.78" arrivalSpeed="14.58" duration="128.00" routeLength="1766.80" waitingTime="0.00" waitingCount="0" stopTime="0.00" timeLoss="33.93" rerouteNo="1" devices="tripinfo_veh10 routing_veh10" vType="veh_passenger" speedFactor="1.09" vaporized=""/>
    <tripinfo id="veh61" depart="30.00" departLane="-87389674_0" departPos="5.10" departSpeed="0.00" departDelay="0.32" arrival="133.00" arrivalLane="-113870449#8_0" arrivalPos="36.59" arrivalSpeed="13.55" duration="103.00" routeLength="1089.75" waitingTime="0.00" waitingCount="0" stopTime="0.00" timeLoss="28.19" rerouteNo="1" devices="tripinfo_veh61 routing_veh61" vType="veh_passenger" speedFactor="1.12" vaporized=""/>
    <tripinfo id="veh109" depart="54.00" departLane="-87393142#3_0" departPos="5.10" departSpeed="0.00" departDelay="0.97" arrival="136.00" arrivalLane="505371070#4_0" arrivalPos="26.61" arrivalSpeed="12.45" duration="82.00" routeLength="878.46" waitingTime="0.00" waitingCount="0" stopTime="0.00" timeLoss="15.47" rerouteNo="1" devices="tripinfo_veh109 routing_veh109" vType="veh_passenger" speedFactor="0.96" vaporized=""/>
    <tripinfo id="veh84" depart="41.00" departLane="-87392527_0" departPos="5.10" departSpeed="0.00" departDelay="0.13" arrival="145.00" arrivalLane="-87391482_0" arrivalPos="509.34" arrivalSpeed="15.52" duration="104.00" routeLength="1379.12" waitingTime="0.00" waitingCount="0" stopTime="0.00" timeLoss="15.22" rerouteNo="1" devices="tripinfo_veh84 routing_veh84" vType="veh_passenger" speedFactor="1.15" vaporized=""/>
    <tripinfo id="veh70" depart="35.00" departLane="-541727223#1_0" departPos="5.10" departSpeed="0.00" departDelay="0.95" arrival="147.00" arrivalLane="-834264167#0_0" arrivalPos="25.02" arrivalSpeed="12.66" duration="112.00" routeLength="1366.24" waitingTime="0.00" waitingCount="0" stopTime="0.00" timeLoss="28.07" rerouteNo="1" devices="tripinfo_veh70 routing_veh70" vType="veh_passenger" speedFactor="1.02" vaporized=""/>
    <tripinfo id="veh23" depart="12.00" departLane="-87391436#7_0" departPos="5.10" departSpeed="0.00" departDelay="0.81" arrival="152.00" arrivalLane="-834012325_0" arrivalPos="50.17" arrivalSpeed="12.32" duration="140.00" routeLength="2047.58" waitingTime="0.00" waitingCount="0" stopTime="0.00" timeLoss="36.51" rerouteNo="1" devices="tripinfo_veh23 routing_veh23" vType="veh_passenger" speedFactor="0.89" vaporized=""/>
    <tripinfo id="veh48" depart="28.00" departLane="833625255#0_0" departPos="5.10" departSpeed="0.00" departDelay="4.65" arrival="154.00" arrivalLane="1172503746_0" arrivalPos="75.06" arrivalSpeed="18.88" duration="126.00" routeLength="1795.08" waitingTime="7.00" waitingCount="1" stopTime="0.00" timeLoss="33.04" rerouteNo="1" devices="tripinfo_veh48 routing_veh48" vType="veh_passenger" speedFactor="0.88" vaporized=""/>
    <tripinfo id="veh78" depart="38.00" departLane="87392566#2_0" departPos="5.10" departSpeed="0.00" departDelay="0.05" arrival="158.00" arrivalLane="406320076#3_0" arrivalPos="66.68" arrivalSpeed="26.38" duration="120.00" routeLength="2054.40" waitingTime="0.00" waitingCount="0" stopTime="0.00" timeLoss="21.36" rerouteNo="1" devices="tripinfo_veh78 routing_veh78" vType="veh_passenger" speedFactor="1.01" vaporized=""/>
    <tripinfo id="veh81" depart="40.00" departLane="-416469407#3_0" departPos="5.10" departSpeed="0.00" departDelay="0.59" arrival="159.00" arrivalLane="1016048038_0" arrivalPos="66.46" arrivalSpeed="12.71" duration="119.00" routeLength="1754.15" waitingTime="0.00" waitingCount="0" stopTime="0.00" timeLoss="21.11" rerouteNo="1" devices="tripinfo_veh81 routing_veh81" vType="veh_passenger" speedFactor="1.00" vaporized=""/>
    <tripinfo id="veh182" depart="89.00" departLane="87389593#3_0" departPos="2.08" departSpeed="0.00" departDelay="0.46" arrival="162.00" arrivalLane="834321210_0" arrivalPos="54.53" arrivalSpeed="13.72" duration="73.00" routeLength="1656.60" waitingTime="0.00" waitingCount="0" stopTime="0.00" timeLoss="11.36" rerouteNo="1" devices="tripinfo_veh182 routing_veh182" vType="veh_passenger" speedFactor="1.03" vaporized=""/>
    <tripinfo id="veh150" depart="75.00" departLane="87389436#5_0" departPos="5.10" departSpeed="0.00" departDelay="2.03" arrival="164.00" arrivalLane="-836210991_0" arrivalPos="71.65" arrivalSpeed="12.49" duration="89.00" routeLength="1299.93" waitingTime="0.00" waitingCount="0" stopTime="0.00" timeLoss="15.81" rerouteNo="1" devices="tripinfo_veh150 routing_veh150" vType="veh_passenger" speedFactor="0.96" vaporized=""/>
    <tripinfo id="veh38" depart="19.00" departLane="311609730#0_0" departPos="5.10" departSpeed="0.00" departDelay="0.51" arrival="165.00" arrivalLane="87391683#0_0" arrivalPos="14.21" arrivalSpeed="10.65" duration="146.00" routeLength="2467.48" waitingTime="0.00" waitingCount="0" stopTime="0.00" timeLoss="30.63" rerouteNo="1" devices="tripinfo_veh38 routing_veh38" vType="veh_passenger" speedFactor="1.10" vaporized=""/>
    <tripinfo id="veh123" depart="60.00" departLane="773691275#1_0" departPos="5.10" departSpeed="0.00" departDelay="0.16" arrival="165.00" arrivalLane="-1009885019_0" arrivalPos="41.14" arrivalSpeed="12.68" duration="105.00" routeLength="1292.07" waitingTime="0.00" waitingCount="0" stopTime="0.00" timeLoss="27.62" rerouteNo="1" devices="tripinfo_veh123 routing_veh123" vType="veh_passenger" speedFactor="1.02" vaporized=""/>
    <tripinfo id="veh12" depart="6.00" departLane="87390118#9_0" departPos="5.10" departSpeed="0.00" departDelay="0.16" arrival="167.00" arrivalLane="541727262_0" arrivalPos="35.08" arrivalSpeed="13.45" duration="161.00" routeLength="2951.80" waitingTime="0.00" waitingCount="0" stopTime="0.00" timeLoss="39.23" rerouteNo="1" devices="tripinfo_veh12 routing_veh12" vType="veh_passenger" speedFactor="1.05" vaporized=""/>
    <tripinfo id="veh227" depart="111.00" departLane="834277386#0_0" departPos="5.10" departSpeed="0.00" departDelay="0.57" arrival="168.00" arrivalLane="-87392992#0_0" arrivalPos="64.40" arrivalSpeed="15.11" duration="57.00" routeLength="706.46" waitingTime="0.00" waitingCount="0" stopTime="0.00" timeLoss="16.89" rerouteNo="1" devices="tripinfo_veh227 routing_veh227" vType="veh_passenger" speedFactor="1.11" vaporized=""/>
    <tripinfo id="veh19" depart="10.00" departLane="-834249524#1_0" departPos="5.10" departSpeed="0.00" departDelay="0.76" arrival="169.00" arrivalLane="-87389813#3_0" arrivalPos="35.57" arrivalSpeed="14.84" duration="159.00" routeLength="2284.56" waitingTime="0.00" waitingCount="0" stopTime="0.00" timeLoss="47.19" rerouteNo="1" devices="tripinfo_veh19 routing_veh19" vType="veh_passenger" speedFactor="1.16" vaporized=""/>
    <tripinfo id="veh93" depart="46.00" departLane="87390158#2_0" departPos="5.10" departSpeed="0.00" departDelay="0.76" arrival="170.00" arrivalLane="-833887545_0" arrivalPos="36.93" arrivalSpeed="12.42" duration="124.00" routeLength="2073.15" waitingTime="0.00" waitingCount="0" stopTime="0.00" timeLoss="25.65" rerouteNo="1" devices="tripinfo_veh93 routing_veh93" vType="veh_passenger" speedFactor="0.92" vaporized=""/>
    <tripinfo id="veh179" depart="88.00" departLane="1016550042_0" departPos="0.20" departSpeed="0.00" departDelay="0.92" arrival="170.00" arrivalLane="87391787#0_0" arrivalPos="21.43" arrivalSpeed="13.69" duration="82.00" routeLength="1201.09" waitingTime="0.00" waitingCount="0" stopTime="0.00" timeLoss="17.26" rerouteNo="1" devices="tripinfo_veh179 routing_veh179" vType="veh_passenger" speedFactor="1.06" vaporized=""/>
    <tripinfo id="veh47" depart="23.00" departLane="-1016016983_0" departPos="5.10" departSpeed="12.51" departDelay="0.13" arrival="171.00" arrivalLane="834264170#3_0" arrivalPos="67.20" arrivalSpeed="12.40" duration="148.00" routeLength="2244.86" waitingTime="0.00" waitingCount="0" stopTime="0.00" timeLoss="19.86" rerouteNo="1" devices="tripinfo_veh47 routing_veh47" vType="veh_passenger" speedFactor="0.90" vaporized=""/>
    <tripinfo id="veh230" depart="112.00" departLane="985540780_0" departPos="5.10" departSpeed="0.00" departDelay="0.11" arrival="171.00" arrivalLane="-87391835_0" arrivalPos="81.63" arrivalSpeed="13.83" duration="59.00" routeLength="599.46" waitingTime="0.00" waitingCount="0" stopTime="0.00" timeLoss="21.48" rerouteNo="1" devices="tripinfo_veh230 routing_veh230" vType="veh_passenger" speedFactor="1.04" vaporized=""/>
    <tripinfo id="veh220" depart="108.00" departLane="-87392628#1_0" departPos="5.10" departSpeed="11.42" departDelay="0.97" arrival="172.00" arrivalLane="-833870629_0" arrivalPos="47.43" arrivalSpeed="12.93" duration="64.00" routeLength="652.92" waitingTime="0.00" waitingCount="0" stopTime="0.00" timeLoss="14.57" rerouteNo="1" devices="tripinfo_veh220 routing_veh220" vType="veh_passenger" speedFactor="1.00" vaporized=""/>
    <tripinfo id="veh148" depart="72.00" departLane="-87390354#1_0" departPos="5.10" departSpeed="0.00" departDelay="0.00" arrival="176.00" arrivalLane="87392730#13_0" arrivalPos="41.42" arrivalSpeed="12.59" duration="104.00" routeLength="1631.70" waitingTime="0.00" waitingCount="0" stopTime="0.00" timeLoss="22.19" rerouteNo="1" devices="tripinfo_veh148 routing_veh148" vType="veh_passenger" speedFactor="0.97" vaporized=""/>
    <tripinfo id="veh99" depart="49.00" departLane="113885391#0_0" departPos="5.10" departSpeed="0.00" departDelay="0.84" arrival="179.00" arrivalLane="834261069#3_0" arrivalPos="38.86" arrivalSpeed="14.29" duration="130.00" routeLength="1942.51" waitingTime="0.00" waitingCount="0" stopTime="0.00" timeLoss="36.31" rerouteNo="1" devices="tripinfo_veh99 routing_veh99" vType="veh_passenger" speedFactor="1.10" vaporized=""/>
    <tripinfo id="veh140" depart="69.00" departLane="-87389683#5_0" departPos="5.10" departSpeed="0.00" departDelay="0.89" arrival="179.00" arrivalLane="87391710#1_0" arrivalPos="104.89" arrivalSpeed="15.02" duration="110.00" routeLength="1436.18" waitingTime="2.00" waitingCount="1" stopTime="0.00" timeLoss="34.67" rerouteNo="1" devices="tripinfo_veh140 routing_veh140" vType="veh_passenger" speedFactor="1.11" vaporized=""/>
    <tripinfo id="veh4" depart="2.00" departLane="-87393265#3_0" departPos="5.10" departSpeed="0.00" departDelay="0.05" arrival="180.00" arrivalLane="-1089568185#1_0" arrivalPos="20.59" arrivalSpeed="10.65" duration="178.00" routeLength="2023.02" waitingTime="0.00" waitingCount="0" stopTime="0.00" timeLoss="33.30" rerouteNo="1" devices="tripinfo_veh4 routing_veh4" vType="veh_passenger" speedFactor="1.03" vaporized=""/>
    <tripinfo id="veh6" depart="3.00" departLane="-1087984862#4_0" departPos="5.10" departSpeed="0.00" departDelay="0.08" arrival="182.00" arrivalLane="-833959014_0" arrivalPos="37.88" arrivalSpeed="13.26" duration="179.00" routeLength="2286.89" waitingTime="0.00" waitingCount="0" stopTime="0.00" timeLoss="44.58" rerouteNo="1" devices="tripinfo_veh6 routing_veh6" vType="veh_passenger" speedFactor="1.05" vaporized=""/>
    <tripinfo id="veh129" depart="63.00" departLane="1089368236#0_0" departPos="5.10" departSpeed="0.00" departDelay="0.24" arrival="182.00" arrivalLane="87391844#9_0" arrivalPos="25.41" arrivalSpeed="13.52" duration="119.00" routeLength="1698.65" waitingTime="0.00" waitingCount="0" stopTime="0.00" timeLoss="19.65" rerouteNo="1" devices="tripinfo_veh129 routing_veh129" vType="veh_passenger" speedFactor="1.01" vaporized=""/>
    <tripinfo id="veh210" depart="103.00" departLane="-87392995#1_0" departPos="5.10" departSpeed="0.00" departDelay="0.84" arrival="182.00" arrivalLane="-834003923_0" arrivalPos="43.39" arrivalSpeed="15.18" duration="79.00" routeLength="798.99" waitingTime="0.00" waitingCount="0" stopTime="0.00" timeLoss="24.92" rerouteNo="1" devices="tripinfo_veh210 routing_veh210" vType="veh_passenger" speedFactor="1.10" vaporized=""/>
    <tripinfo id="veh60" depart="30.00" departLane="87390905#2_0" departPos="5.10" departSpeed="0.00" departDelay="0.81" arrival="183.00" arrivalLane="87390169#2_0" arrivalPos="52.04" arrivalSpeed="14.06" duration="153.00" routeLength="2879.81" waitingTime="0.00" waitingCount="0" stopTime="0.00" timeLoss="22.37" rerouteNo="1" devices="tripinfo_veh60 routing_veh60" vType="veh_passenger" speedFactor="1.08" vaporized=""/>
    <tripinfo id="veh80" depart="39.00" departLane="846596291_0" departPos="5.10" departSpeed="22.99" departDelay="0.08" arrival="183.00" arrivalLane="-833950506_0" arrivalPos="181.36" arrivalSpeed="14.08" duration="144.00" routeLength="2557.06" waitingTime="0.00" waitingCount="0" stopTime="0.00" timeLoss="11.93" rerouteNo="1" devices="tripinfo_veh80 routing_veh80" vType="veh_passenger" speedFactor="1.03" vaporized=""/>
    <tripinfo id="veh157" depart="77.00" departLane="-87390198#1_0" departPos="5.10" departSpeed="0.00" departDelay="0.62" arrival="183.00" arrivalLane="87390918#5_0" arrivalPos="72.55" arrivalSpeed="11.49" duration="106.00" routeLength="1089.68" waitingTime="0.00" waitingCount="0" stopTime="0.00" timeLoss="28.33" rerouteNo="1" devices="tripinfo_veh157 routing_veh157" vType="veh_passenger" speedFactor="1.08" vaporized=""/>
    <tripinfo id="veh54" depart="27.00" departLane="87391817#2_0" departPos="5.10" departSpeed="0.00" departDelay="0.73" arrival="187.00" arrivalLane="87391047#11_0" arrivalPos="47.14" arrivalSpeed="21.48" duration="160.00" routeLength="2333.51" waitingTime="1.00" waitingCount="1" stopTime="0.00" timeLoss="50.88" rerouteNo="1" devices="tripinfo_veh54 routing_veh54" vType="veh_passenger" speedFactor="1.00" vaporized=""/>
    <tripinfo id="veh98" depart="48.00" departLane="87393313_0" departPos="5.10" departSpeed="0.00" departDelay="0.32" arrival="188.00" arrivalLane="939203349#0_1" arrivalPos="27.59" arrivalSpeed="11.56" duration="140.00" routeLength="1780.14" waitingTime="0.00" waitingCount="0" stopTime="0.00" timeLoss="47.21" rerouteNo="1" devices="tripinfo_veh98 routing_veh98" vType="veh_passenger" speedFactor="1.12" vaporized=""/>
    <tripinfo id="veh107" depart="53.00" departLane="-834264172#2_0" departPos="5.10" departSpeed="0.00" departDelay="0.95" arrival="190.00" arrivalLane="-615948340#0_0" arrivalPos="307.74" arrivalSpeed="14.13" duration="137.00" routeLength="2005.47" waitingTime="3.00" waitingCount="1" stopTime="0.00" timeLoss="31.24" rerouteNo="1" devices="tripinfo_veh107 routing_veh107" vType="veh_passenger" speedFactor="1.03" vaporized=""/>
    <tripinfo id="veh53" depart="26.00" departLane="1089568183#1_1" departPos="4.88" departSpeed="0.00" departDelay="0.22" arrival="194.00" arrivalLane="-833940254_0" arrivalPos="39.58" arrivalSpeed="14.61" duration="168.00" routeLength="2502.81" waitingTime="0.00" waitingCount="0" stopTime="0.00" timeLoss="37.06" rerouteNo="1" devices="tripinfo_veh53 routing_veh53" vType="veh_passenger" speedFactor="1.10" vaporized=""/>
    <tripinfo id="veh191" depart="93.00" departLane="-496915278#1_0" departPos="5.10" departSpeed="0.00" departDelay="0.08" arrival="195.00" arrivalLane="1009893279#1_0" arrivalPos="48.91" arrivalSpeed="11.77" duration="102.00" routeLength="1033.37" waitingTime="0.00" waitingCount="0" stopTime="0.00" timeLoss="18.21" rerouteNo="1" devices="tripinfo_veh191 routing_veh191" vType="veh_passenger" speedFactor="0.93" vaporized=""/>
    <tripinfo id="veh1" depart="1.00" departLane="-836173902_0" departPos="5.10" departSpeed="13.03" departDelay="0.51" arrival="197.00" arrivalLane="-834261461_0" arrivalPos="17.85" arrivalSpeed="9.64" duration="196.00" routeLength="3196.77" waitingTime="0.00" waitingCount="0" stopTime="0.00" timeLoss="19.49" rerouteNo="1" devices="tripinfo_veh1 routing_veh1" vType="veh_passenger" speedFactor="0.94" vaporized=""/>
    <tripinfo id="veh76" depart="37.00" departLane="-834270907_0" departPos="5.10" departSpeed="0.00" departDelay="0.03" arrival="197.00" arrivalLane="833915350_0" arrivalPos="56.50" arrivalSpeed="13.57" duration="160.00" routeLength="1965.40" waitingTime="0.00" waitingCount="0" stopTime="0.00" timeLoss="33.72" rerouteNo="1" devices="tripinfo_veh76 routing_veh76" vType="veh_passenger" speedFactor="1.03" vaporized=""/>
    <tripinfo id="veh45" depart="22.00" departLane="939203349#1_0" departPos="5.10" departSpeed="0.00" departDelay="0.11" arrival="200.00" arrivalLane="1169375480_0" arrivalPos="86.35" arrivalSpeed="22.71" duration="178.00" routeLength="2953.43" waitingTime="16.00" waitingCount="2" stopTime="0.00" timeLoss="58.73" rerouteNo="1" devices="tripinfo_veh45 routing_veh45" vType="veh_passenger" speedFactor="1.09" vaporized=""/>
    <tripinfo id="veh306" depart="149.00" departLane="833579405_0" departPos="5.10" departSpeed="14.68" departDelay="0.13" arrival="200.00" arrivalLane="-833612697_0" arrivalPos="18.19" arrivalSpeed="10.11" duration="51.00" routeLength="590.57" waitingTime="0.00" waitingCount="0" stopTime="0.00" timeLoss="8.69" rerouteNo="1" devices="tripinfo_veh306 routing_veh306" vType="veh_passenger" speedFactor="1.06" vaporized=""/>
    <tripinfo id="veh41" depart="20.00" departLane="-389383181#3_0" departPos="5.10" departSpeed="13.29" departDelay="0.05" arrival="201.00" arrivalLane="-1101824046#0_0" arrivalPos="90.63" arrivalSpeed="13.06" duration="181.00" routeLength="2491.76" waitingTime="0.00" waitingCount="0" stopTime="0.00" timeLoss="41.95" rerouteNo="1" devices="tripinfo_veh41 routing_veh41" vType="veh_passenger" speedFactor="0.96" vaporized=""/>
    <tripinfo id="veh92" depart="45.00" departLane="87393841#1_0" departPos="5.10" departSpeed="0.00" departDelay="0.24" arrival="201.00" arrivalLane="87392517_0" arrivalPos="135.62" arrivalSpeed="10.75" duration="156.00" routeLength="1865.84" waitingTime="0.00" waitingCount="0" stopTime="0.00" timeLoss="20.85" rerouteNo="1" devices="tripinfo_veh92 routing_veh92" vType="veh_passenger" speedFactor="0.83" vaporized=""/>
    <tripinfo id="veh130" depart="64.00" departLane="87390118#19_0" departPos="5.10" departSpeed="0.00" departDelay="0.76" arrival="201.00" arrivalLane="-496915241#1_0" arrivalPos="17.20" arrivalSpeed="14.04" duration="137.00" routeLength="1503.74" waitingTime="14.00" waitingCount="1" stopTime="0.00" timeLoss="46.02" rerouteNo="1" devices="tripinfo_veh130 routing_veh130" vType="veh_passenger" speedFactor="1.03" vaporized=""/>
    <tripinfo id="veh121" depart="59.00" departLane="87389795#4_0" departPos="5.10" departSpeed="0.00" departDelay="0.13" arrival="203.00" arrivalLane="834005460_0" arrivalPos="70.23" arrivalSpeed="14.43" duration="144.00" routeLength="1905.17" waitingTime="0.00" waitingCount="0" stopTime="0.00" timeLoss="24.00" rerouteNo="1" devices="tripinfo_veh121 routing_veh121" vType="veh_passenger" speedFactor="1.10" vaporized=""/>
    <tripinfo id="veh217" depart="106.00" departLane="1105898943_1" departPos="5.10" departSpeed="0.00" departDelay="0.43" arrival="203.00" arrivalLane="541727254#8_0" arrivalPos="30.75" arrivalSpeed="11.92" duration="97.00" routeLength="1264.63" waitingTime="0.00" waitingCount="0" stopTime="0.00" timeLoss="25.78" rerouteNo="1" devices="tripinfo_veh217 routing_veh217" vType="veh_passenger" speedFactor="1.07" vaporized=""/>
    <tripinfo id="veh30" depart="15.00" departLane="87390065_0" departPos="5.10" departSpeed="0.00" departDelay="0.41" arrival="205.00" arrivalLane="836217506#1_0" arrivalPos="54.43" arrivalSpeed="15.73" duration="190.00" routeLength="3557.56" waitingTime="0.00" waitingCount="0" stopTime="0.00" timeLoss="53.88" rerouteNo="1" devices="tripinfo_veh30 routing_veh30" vType="veh_passenger" speedFactor="1.18" vaporized=""/>
    <tripinfo id="veh11" depart="6.00" departLane="-401434288#0_0" departPos="5.10" departSpeed="0.00" departDelay="0.65" arrival="206.00" arrivalLane="-505371075#0_0" arrivalPos="0.20" arrivalSpeed="3.27" duration="200.00" routeLength="2174.81" waitingTime="23.00" waitingCount="1" stopTime="0.00" timeLoss="61.36" rerouteNo="1" devices="tripinfo_veh11 routing_veh11" vType="veh_passenger" speedFactor="1.03" vaporized=""/>
    <tripinfo id="veh14" depart="7.00" departLane="1101817937_0" departPos="5.10" departSpeed="0.00" departDelay="0.19" arrival="206.00" arrivalLane="87393989#4_1" arrivalPos="96.03" arrivalSpeed="26.88" duration="199.00" routeLength="3115.41" waitingTime="37.00" waitingCount="2" stopTime="0.00" timeLoss="75.00" rerouteNo="1" devices="tripinfo_veh14 routing_veh14" vType="veh_passenger" speedFactor="0.99" vaporized=""/>
    <tripinfo id="veh301" depart="147.00" departLane="1095438790_0" departPos="5.10" departSpeed="0.00" departDelay="0.57" arrival="206.00" arrivalLane="1089368218_1" arrivalPos="38.62" arrivalSpeed="15.04" duration="59.00" routeLength="803.70" waitingTime="0.00" waitingCount="0" stopTime="0.00" timeLoss="17.20" rerouteNo="1" devices="tripinfo_veh301 routing_veh301" vType="veh_passenger" speedFactor="0.94" vaporized=""/>